ITEM: TIMESTEP
0
ITEM: NUMBER OF ATOMS
290
ITEM: BOX BOUNDS pp pp pp
0 3.8622075000000002
0 3.8622075000000002
0 3.8622075000000002
ITEM: ATOMS id type x y z
1 1 -2.2170693 -2.0027922 -3.0591277000000003 
2 1 -2.1196794 -2.2112375 -2.7647657 
3 1 -2.2083853 -2.6061889999999996 -2.9683069 
4 1 -1.9211143 -2.6162526 -2.508423 
5 1 -1.6436095000000002 -3.0396994 -2.5088555 
6 1 -1.3377822 -2.5399944000000003 -2.4746835999999997 
7 1 -1.2506071 -2.8483114 -2.248531 
8 1 -1.5594704 -2.8648420999999997 -1.8095944 
9 1 -1.2446676 -2.3807802 -1.7591867 
10 1 -1.1855495 -2.666108 -1.4513194 
11 1 -0.4056539 -0.0502488 -0.6827057 
12 1 -0.9227903 -0.0327453 -0.5936317 
13 1 -0.9396602 0.5428174 -0.48451849999999996 
14 1 -1.0602368 0.47720609999999997 -1.026914 
15 1 -1.5388016 0.3582655 -0.7235932 
16 1 -1.6342793 -3.1306015 -0.7283393 
17 1 -1.4585428 -3.0860595 -1.1910997 
18 1 -1.0255505 -2.9006972 -0.9396355 
19 1 -1.3763904 -2.5626938 -0.8137797000000001 
20 1 -1.1964784 -2.1694703 -1.174 
21 1 -0.36414599999999997 -1.2353436 -1.2613492000000002 
22 1 -0.697647 -1.5923022 -1.3650856 
23 1 -0.567101 -1.2715308 -1.7513414999999999 
24 1 -0.8239289 -1.7226935 -1.8381112000000002 
25 1 -0.332289 -1.8639344000000002 -1.7047027 
26 1 -0.222026 -1.6518921 -2.1622656 
27 1 -0.1582631 -2.0640291 -2.5214042 
28 1 -0.46599130000000005 -1.7279281000000002 -2.6167397 
29 1 -0.9581204 -1.9491228 -2.609968 
30 1 -0.8923997 -1.5113895 -2.1926411999999997 
31 1 -2.6991434 -2.8644922 -2.7415130999999997 
32 1 -2.6595842000000003 -2.658943 -2.2717469 
33 1 -2.5490783 -2.2850270999999998 -2.2929041999999997 
34 1 -2.1033839 -2.1485456 -2.1723195 
35 1 -2.4330125 -2.2595414000000003 -1.8410802 
36 1 -1.9504905000000001 -2.1930924999999997 -1.7152813999999998 
37 1 -2.256208 -2.099931 -1.3701802 
38 1 -1.9049872 -2.2134133 -1.1098152000000001 
39 1 -2.3036547 -2.0588419 -0.9161640999999999 
40 1 -2.0380488 -2.3430993 -0.5076916 
41 1 -2.9681688 -1.7450941 -2.253885 
42 1 -2.5256399 -1.6781213000000001 -2.4801129 
43 1 -2.3773182999999998 -1.3930891 -2.1419913999999998 
44 1 -2.1909513 -1.2655530000000002 -2.6042885 
45 1 -2.2866079 -1.0452267000000002 -2.8637539 
46 1 -2.704056 -0.9210100999999999 -2.9005935000000003 
47 1 -2.4197977 -0.6949183999999999 -3.1568684 
48 1 -2.8852962 -0.5016442 -2.9518499 
49 1 -2.4574473 -0.23176770000000002 -2.8037688 
50 1 -2.5040766999999997 0.2756335 -3.0269711999999998 
51 1 0.0755806 -2.8379382 -1.7710947999999997 
52 1 0.1408789 -2.358569 -2.0087028 
53 1 0.48420399999999997 -2.2533068 -1.7662147000000001 
54 1 0.2819882 -1.8435763 -1.8480720000000002 
55 1 0.4936046 -1.622817 -1.3897969 
56 1 -3.00975 -1.7412987999999998 -1.702265 
57 1 -2.9515295999999998 -1.3176223 -1.8899025999999999 
58 1 -3.0537023000000003 -1.0995002 -1.3769661 
59 1 -2.6931846 -1.0109745 -1.6294616000000002 
60 1 -2.4199588 -1.4171925 -1.3080585 
61 1 -1.389755 -2.038174 -0.3698496 
62 1 -1.7462892 -1.8614802000000001 -0.4634398 
63 1 -1.429379 -1.6947341999999999 -0.829252 
64 1 -1.8214574 -1.6135190000000001 -1.0027664 
65 1 -1.4106222000000002 -1.2711890000000001 -0.9938976 
66 1 -1.9438144999999998 -1.0651575 -1.0533034000000001 
67 1 -1.7903635000000002 -1.0853994 -0.4716475 
68 1 -1.3718765 -0.8234441 -0.7070687 
69 1 -1.3757259 -0.7263286 -0.3367698 
70 1 -1.763851 -0.2765753 -0.278961 
71 1 -0.732786 -0.7583273 -2.0491861 
72 1 -1.0511853 -0.5013516 -2.1572500000000003 
73 1 -0.8884297999999999 -0.2685584 -2.4726911 
74 1 -0.8822717000000001 -0.7784983000000001 -2.5684403 
75 1 -0.3955342 -0.667542 -2.4497534 
76 1 -0.2279368 -0.4169723 -2.7814785 
77 1 0.0747582 -0.766544 -2.6870485 
78 1 0.140049 -0.5370288000000001 -3.1055378 
79 1 -0.12423949999999999 -0.9365239000000001 -3.315736 
80 1 0.3213883 -1.2102539 -3.5100588000000004 
81 1 -2.1813137 -0.6027026 -1.2279041 
82 1 -1.6923624 -0.6418478999999999 -1.3030308 
83 1 -1.8251757000000002 -0.1941738 -1.0433065 
84 1 -1.4621228 0.0520887 -1.3291724 
85 1 -1.3902174999999999 -0.1552584 -0.88521 
86 1 -1.0554808 -0.08852449999999999 -1.2769021999999999 
87 1 -0.7757425 -0.5561882 -1.261282 
88 1 -0.9677288000000001 -0.3249441 -1.6637501000000001 
89 1 -0.9921616 -0.8446823999999999 -1.4849513 
90 1 -1.4143440999999999 -0.9015131000000001 -1.8855706 
91 1 -2.0275987 -2.8323377 -1.3699331000000001 
92 1 -2.0309271 -2.9638239 -1.8592377 
93 1 -2.4191952 -3.2794612 -1.7617536999999999 
94 1 -2.4542759 -3.4596685000000003 -2.0733221 
95 1 -2.2952026 0.2168939 -2.3964482 
96 1 -2.1395503000000002 0.6437171 -2.4974552 
97 1 -1.9886806 -3.5378819 -2.8633091 
98 1 -1.7598258999999998 -3.1634002 -2.9910471000000003 
99 1 -1.6345839000000002 -3.5891075999999997 -3.1834786 
100 1 -1.0792696 0.3263763 -3.0911715 
101 1 -3.2260915 -1.8288841999999998 -0.4261961 
102 1 -3.2798698 -2.0174691 -0.8571103000000001 
103 1 -2.923875 -1.7561305999999999 -0.9108416 
104 1 -3.0097125 -2.1138594 -1.2528876 
105 1 -2.6009154 -2.4601748 -1.252984 
106 1 -3.104777 -2.6724788 -1.0888699000000002 
107 1 -2.7654471000000003 -2.8168072 -1.4468923999999999 
108 1 -3.2509604000000003 -2.89603 -1.5019642 
109 1 -3.0409192000000003 -2.9987500000000002 -1.939924 
110 1 -3.4480376999999995 -2.9235887000000003 -2.2641142 
111 1 -0.1707591 -0.23138920000000002 -1.6065517 
112 1 0.0617851 0.08893720000000001 -1.2734308 
113 1 0.31090049999999997 0.4618373 -1.5923968 
114 1 -3.1435132 0.1922884 -1.3851872 
115 1 -3.4138718 0.1911081 -0.9202866999999999 
116 1 -3.3797574 -3.2816682 -0.8892421 
117 1 -2.8737296 -3.0985872 -0.9510738999999999 
118 1 -2.7958033 -3.5587355 -0.8745196999999999 
119 1 -2.4318773 0.45959320000000004 -1.2172311 
120 1 -2.3809274 0.0470512 -0.9995184 
121 1 -1.0835427 -1.0933798 -3.0815114 
122 1 -1.0109948 -1.4025145 -2.8166379 
123 1 -1.4698090000000001 -1.3652011 -2.7116299 
124 1 -1.6649865 -1.7294996 -2.5685192 
125 1 -1.3452953 -1.9643823999999999 -2.2254128 
126 1 -1.6356507 -1.6108761999999999 -2.1266126 
127 1 -1.261816 -1.3586772 -1.7943777 
128 1 -1.4972771 -1.7078168999999999 -1.4918008 
129 1 -1.7145587 -1.3190859 -1.5823358 
130 1 -2.1963777 -1.7027888999999998 -1.7162312 
131 1 0.047830899999999996 -2.1903987000000003 -0.3784195 
132 1 -0.1203069 -2.6471777 -0.1962636 
133 1 -0.4509681 -2.7955370999999998 -0.42515790000000003 
134 1 -0.5463734 -2.949966 -0.060119599999999995 
135 1 -1.0208829 -2.6160971 0.097705 
136 1 -1.2042126 -2.7167421000000003 -0.2823403 
137 1 -1.0034022 -2.2518336000000003 -0.1812789 
138 1 -0.6723795 -2.2616886000000003 -0.5577591 
139 1 -0.740085 -1.8393771 -0.8048428 
140 1 -0.5810278 -1.7959064999999999 -0.3888442 
141 1 -0.04346 -1.9107127 -0.8269168 
142 1 0.1429335 -2.3143083 -1.1256836 
143 1 -0.1614703 -2.7089702 -1.0164486 
144 1 -0.5954284000000001 -2.4404928000000004 -1.0836969 
145 1 -0.4322629 -2.7404520000000003 -1.3604927 
146 1 -0.6540113 -2.3449912 -1.5817285 
147 1 -0.6540268 -2.6922246999999997 -1.8386578 
148 1 -0.6451644 -2.3126888 -2.1299526 
149 1 -0.5776521 -2.4295011 -2.5460248 
150 1 -0.6830896 -2.9569637 -2.5907736 
151 1 -2.8776839 -1.8124099 0.210355 
152 1 -3.3712932 -1.6929617000000001 0.0385324 
153 1 -3.4948422999999997 -1.8305951 0.5703490999999999 
154 1 -3.7068747 -1.9759906999999999 0.19668049999999998 
155 1 0.1021472 -2.3151545 0.256765 
156 1 0.4502198 -2.7210252 0.10104329999999999 
157 1 0.42950989999999994 -2.8946069999999997 0.41616739999999997 
158 1 -0.0045445 -2.7827344 -3.3818917999999996 
159 1 -0.0799189 -2.6605833 -2.8700508 
160 1 -0.1479576 -2.1617167999999998 -3.0661946 
161 1 -2.6954558 -2.1137833 -0.48333649999999995 
162 1 -2.9535092 -2.5264902 -0.2168161 
163 1 -3.2524898999999996 -2.5176637 -0.5764443 
164 1 -3.4470788 -2.7966907 -0.5440394000000001 
165 1 -3.1754371 -3.305255 -0.4555544 
166 1 -2.9215883000000002 -3.1463781 -0.0790751 
167 1 -2.5906963999999997 -3.1565981 -0.5010264 
168 1 -2.3313897 -2.8193959 -0.17721150000000002 
169 1 -2.1766099 -3.325321 -0.22409249999999997 
170 1 -2.2227143000000003 -3.2561717000000003 0.3034446 
171 1 -0.5994754 -3.0931547 -3.0050738 
172 1 -0.9967181999999999 -2.8416360000000003 -2.9670039 
173 1 -0.6908516 -2.7711755 -3.4410787999999997 
174 1 -1.2202895 -3.0290229 0.46506100000000006 
175 1 -1.0161436 -3.3668095 0.1658904 
176 1 -1.472348 -3.2332887 -0.1416364 
177 1 -1.3010018 0.22756389999999999 -0.2275561 
178 1 -1.6458057 0.3532732 0.169186 
179 1 -1.2485412 0.0216598 0.3435602 
180 1 -1.5399402 -0.4413524 0.37517239999999996 
181 1 -3.2248957 -2.6240668 -2.8809636999999997 
182 1 -3.1915672 -2.4808683 -2.5076736 
183 1 -2.8740918 -2.2343631999999998 -2.8575761 
184 1 -2.9288252 -1.8972107999999999 -2.9918328 
185 1 -2.8885846 -1.4571998000000002 -2.770015 
186 1 -3.2458336 -1.4788571 -3.0014712 
187 1 -3.2813159 -1.2942418 -2.4412312 
188 1 0.2918319 -1.7391828 -2.5080514999999997 
189 1 0.0493776 -1.4055351 -2.8160752 
190 1 -0.3676214 -1.1442391 -2.5819867 
191 1 -1.6564279 -1.2251016 0.10507040000000001 
192 1 -1.8803893999999999 -1.5641729 0.20561120000000002 
193 1 -2.1682645999999997 -1.7113343 -0.2102481 
194 1 -2.3763848 -1.3772669 0.022254799999999998 
195 1 -2.3001058 -1.313066 -0.491402 
196 1 -2.2464448 -0.887716 -0.13917 
197 1 -2.6722311999999997 -0.9906337000000001 -0.46145569999999997 
198 1 -2.3150473000000003 -0.588348 -0.6272656999999999 
199 1 -2.6494539 -0.8443824 -0.9837301999999999 
200 1 -2.7158988 -0.3998258 -1.2459149999999999 
201 1 -2.9813207 0.0842659 -3.2517899999999997 
202 1 -3.1741694 0.3432838 -2.9308313 
203 1 -2.8459595 0.5090889 -2.5937039 
204 1 -2.8350393 -0.0040763 -2.4500353 
205 1 -3.2073959000000003 0.2143793 -2.2343713000000003 
206 1 -3.4178355000000002 -0.25711849999999997 -2.4802743 
207 1 -3.4341003 -0.2174292 -2.0160996 
208 1 -3.267581 -0.6481405 -2.0659452000000003 
209 1 -3.0757374 -0.2852407 -1.7110724999999998 
210 1 -2.6288313 -0.3199155 -1.8973403000000002 
211 1 -1.6282272 -1.3492183 -3.2556807 
212 1 -1.2712112 -1.7563016 -3.4020170999999997 
213 1 -1.4841201 -2.1142171999999997 -3.0069269 
214 1 -1.5601610000000001 -2.2196821 -3.5852467 
215 1 -1.4792226 -2.5390115 -3.2510437000000003 
216 1 -1.8298344 -2.7105416 -3.5380938 
217 1 -2.054334 -2.3179762 -3.5915818 
218 1 -2.38189 -2.2760238999999998 -3.6325635 
219 1 -2.6370042000000002 -2.7138058999999997 -3.5352658 
220 1 -3.0509250999999997 -2.3813593 -3.4118037 
221 1 -1.1179786 -3.4297151 -2.4717654 
222 1 -0.8393335000000001 0.1442313 -2.1199784999999998 
223 1 -1.2883965 0.33711820000000003 -1.9138178 
224 1 -1.6220016000000002 0.0870242 -2.0963647 
225 1 -1.7780797 0.1312955 -1.6765344 
226 1 -2.050894 -0.11241490000000001 -1.7170379 
227 1 -1.8314411 -0.49301079999999997 -1.9806705 
228 1 -2.0755586999999998 -0.9418396 -1.771614 
229 1 -2.0987192 -0.8097054 -2.1902307 
230 1 -2.6514818 -0.7699962 -2.2556276 
231 1 0.1915805 -3.1589969 -3.0178253 
232 1 0.0937858 -3.6383906 -2.7822144 
233 1 -0.3466217 -3.5888914 -2.6670836 
234 1 -0.17287619999999998 0.09787019999999999 -2.3117209 
235 1 -0.028794300000000002 0.521976 -2.1246914 
236 1 -0.5016263999999999 -3.1673274 -2.1043955 
237 1 -0.47121139999999995 -3.5528395 -1.7428701 
238 1 -0.2461665 -3.3204634 -1.3763413 
239 1 -0.5442757 -3.4313491999999997 -1.0017334 
240 1 -0.4643466 -0.0109213 -1.2057741 
241 1 -3.3661427 -0.6689193999999999 -0.6389659 
242 1 -3.055016 -0.3030401 -0.7972156 
243 1 -3.2210788 -0.2620429 -0.3586414 
244 1 -2.7955590999999997 0.010688 -0.2923467 
245 1 -3.1218304 0.0073070999999999995 0.0159467 
246 1 -2.6688609 0.1849276 0.1592649 
247 1 -2.4927123 -0.2849162 0.1819155 
248 1 -2.2039231999999997 0.013839899999999999 -3.472152 
249 1 -2.0947917 -0.3965994 -3.5066003 
250 1 -1.8982099000000001 -0.5529139 -3.0270074 
251 1 -0.8625462 -2.4498743000000003 -3.1170493 
252 1 -0.8255286 -2.1627432 -3.3091111 
253 1 -0.5771639000000001 -2.0293003 -3.6032275 
254 1 -0.2487877 -1.6599958999999997 -3.4467905 
255 1 -0.6127875 -1.3847184000000001 -3.2839255 
256 1 -0.5394028 -1.4133264 0.0883282 
257 1 -0.9202641 -1.1619689 0.05543050000000001 
258 1 -1.1828405 -1.3068737000000001 -0.28890099999999996 
259 1 -0.7689163 -1.3034892 -0.6109812 
260 1 -0.6675452 -0.9256019 -0.6020152999999999 
261 1 -0.41694620000000004 0.1868215 -0.2503136 
262 1 0.0497624 0.5024393 -0.058627 
263 1 -0.26148289999999996 0.41515319999999994 0.2114201 
264 1 0.1559269 0.1778629 0.4226281 
265 1 -0.2926712 0.1687598 -3.2231402000000005 
266 1 -0.5262689 -0.1294859 -3.5069606 
267 1 -0.6842053 -0.22947769999999998 -3.0906548000000003 
268 1 -0.7600787999999999 -0.746369 -3.3645866 
269 1 -1.0970927 -0.6474612 -3.442617 
270 1 -1.3914969 -0.3661583 -3.0498578 
271 1 0.4361558 -1.3842257999999998 -0.8974211000000001 
272 1 0.0194556 -1.5184052 -0.5537346000000001 
273 1 0.3270461 -1.232849 -0.4648305 
274 1 -0.1858322 -1.1151356 -0.5490946 
275 1 -0.1629551 -0.6081276 -0.7490346 
276 1 0.3112946 -0.590398 -0.9871842 
277 1 -0.0634484 -0.6363799 -1.2078312 
278 1 0.26222449999999997 -0.7784788 -1.4795928999999999 
279 1 -0.1266975 -0.8466199 -1.6948149000000001 
280 1 0.2456868 -1.2130431 -1.8646062 
281 1 -0.6678593 -0.45307449999999994 -0.5170299 
282 1 -0.4360073 -0.7086985 -0.05314529999999999 
283 1 -0.08986809999999999 -0.5394015999999999 -0.10571520000000001 
284 1 0.012759699999999999 -1.014445 -0.0268792 
285 1 0.28371080000000004 -0.7037036 0.1144221 
286 1 -3.1102476 -0.7160992 -0.061807999999999995 
287 1 -3.0091759 -1.2363593 -0.0076632 
288 1 -2.9047606999999998 -1.0793915 0.37873670000000004 
289 1 -3.0885200999999998 -0.6746155 -3.4186071 
290 1 -3.305701 -0.8979761999999999 -2.9142789000000002 
ITEM: TIMESTEP
100
ITEM: NUMBER OF ATOMS
290
ITEM: BOX BOUNDS pp pp pp
0 3.8622075000000002
0 3.8622075000000002
0 3.8622075000000002
ITEM: ATOMS id type x y z
1 1 -2.2170693 -2.0027922 -3.0591277000000003 
2 1 -2.1196794 -2.2112375 -2.7647657 
3 1 -2.2083853 -2.6061889999999996 -2.9683069 
4 1 -1.9211143 -2.6162526 -2.508423 
5 1 -1.6436095000000002 -3.0396994 -2.5088555 
6 1 -1.3377822 -2.5399944000000003 -2.4746835999999997 
7 1 -1.2506071 -2.8483114 -2.248531 
8 1 -1.5594704 -2.8648420999999997 -1.8095944 
9 1 -1.2446676 -2.3807802 -1.7591867 
10 1 -1.1855495 -2.666108 -1.4513194 
11 1 -0.4056539 -0.0502488 -0.6827057 
12 1 -0.9227903 -0.0327453 -0.5936317 
13 1 -0.9396602 0.5428174 -0.48451849999999996 
14 1 -1.0602368 0.47720609999999997 -1.026914 
15 1 -1.5388016 0.3582655 -0.7235932 
16 1 -1.6342793 -3.1306015 -0.7283393 
17 1 -1.4585428 -3.0860595 -1.1910997 
18 1 -1.0255505 -2.9006972 -0.9396355 
19 1 -1.3763904 -2.5626938 -0.8137797000000001 
20 1 -1.1964784 -2.1694703 -1.174 
21 1 -0.36414599999999997 -1.2353436 -1.2613492000000002 
22 1 -0.697647 -1.5923022 -1.3650856 
23 1 -0.567101 -1.2715308 -1.7513414999999999 
24 1 -0.8239289 -1.7226935 -1.8381112000000002 
25 1 -0.332289 -1.8639344000000002 -1.7047027 
26 1 -0.222026 -1.6518921 -2.1622656 
27 1 -0.1582631 -2.0640291 -2.5214042 
28 1 -0.46599130000000005 -1.7279281000000002 -2.6167397 
29 1 -0.9581204 -1.9491228 -2.609968 
30 1 -0.8923997 -1.5113895 -2.1926411999999997 
31 1 -2.6991434 -2.8644922 -2.7415130999999997 
32 1 -2.6595842000000003 -2.658943 -2.2717469 
33 1 -2.5490783 -2.2850270999999998 -2.2929041999999997 
34 1 -2.1033839 -2.1485456 -2.1723195 
35 1 -2.4330125 -2.2595414000000003 -1.8410802 
36 1 -1.9504905000000001 -2.1930924999999997 -1.7152813999999998 
37 1 -2.256208 -2.099931 -1.3701802 
38 1 -1.9049872 -2.2134133 -1.1098152000000001 
39 1 -2.3036547 -2.0588419 -0.9161640999999999 
40 1 -2.0380488 -2.3430993 -0.5076916 
41 1 -2.9681688 -1.7450941 -2.253885 
42 1 -2.5256399 -1.6781213000000001 -2.4801129 
43 1 -2.3773182999999998 -1.3930891 -2.1419913999999998 
44 1 -2.1909513 -1.2655530000000002 -2.6042885 
45 1 -2.2866079 -1.0452267000000002 -2.8637539 
46 1 -2.704056 -0.9210100999999999 -2.9005935000000003 
47 1 -2.4197977 -0.6949183999999999 -3.1568684 
48 1 -2.8852962 -0.5016442 -2.9518499 
49 1 -2.4574473 -0.23176770000000002 -2.8037688 
50 1 -2.5040766999999997 0.2756335 -3.0269711999999998 
51 1 0.0755806 -2.8379382 -1.7710947999999997 
52 1 0.1408789 -2.358569 -2.0087028 
53 1 0.48420399999999997 -2.2533068 -1.7662147000000001 
54 1 0.2819882 -1.8435763 -1.8480720000000002 
55 1 0.4936046 -1.622817 -1.3897969 
56 1 -3.00975 -1.7412987999999998 -1.702265 
57 1 -2.9515295999999998 -1.3176223 -1.8899025999999999 
58 1 -3.0537023000000003 -1.0995002 -1.3769661 
59 1 -2.6931846 -1.0109745 -1.6294616000000002 
60 1 -2.4199588 -1.4171925 -1.3080585 
61 1 -1.389755 -2.038174 -0.3698496 
62 1 -1.7462892 -1.8614802000000001 -0.4634398 
63 1 -1.429379 -1.6947341999999999 -0.829252 
64 1 -1.8214574 -1.6135190000000001 -1.0027664 
65 1 -1.4106222000000002 -1.2711890000000001 -0.9938976 
66 1 -1.9438144999999998 -1.0651575 -1.0533034000000001 
67 1 -1.7903635000000002 -1.0853994 -0.4716475 
68 1 -1.3718765 -0.8234441 -0.7070687 
69 1 -1.3757259 -0.7263286 -0.3367698 
70 1 -1.763851 -0.2765753 -0.278961 
71 1 -0.732786 -0.7583273 -2.0491861 
72 1 -1.0511853 -0.5013516 -2.1572500000000003 
73 1 -0.8884297999999999 -0.2685584 -2.4726911 
74 1 -0.8822717000000001 -0.7784983000000001 -2.5684403 
75 1 -0.3955342 -0.667542 -2.4497534 
76 1 -0.2279368 -0.4169723 -2.7814785 
77 1 0.0747582 -0.766544 -2.6870485 
78 1 0.140049 -0.5370288000000001 -3.1055378 
79 1 -0.12423949999999999 -0.9365239000000001 -3.315736 
80 1 0.3213883 -1.2102539 -3.5100588000000004 
81 1 -2.1813137 -0.6027026 -1.2279041 
82 1 -1.6923624 -0.6418478999999999 -1.3030308 
83 1 -1.8251757000000002 -0.1941738 -1.0433065 
84 1 -1.4621228 0.0520887 -1.3291724 
85 1 -1.3902174999999999 -0.1552584 -0.88521 
86 1 -1.0554808 -0.08852449999999999 -1.2769021999999999 
87 1 -0.7757425 -0.5561882 -1.261282 
88 1 -0.9677288000000001 -0.3249441 -1.6637501000000001 
89 1 -0.9921616 -0.8446823999999999 -1.4849513 
90 1 -1.4143440999999999 -0.9015131000000001 -1.8855706 
91 1 -2.0275987 -2.8323377 -1.3699331000000001 
92 1 -2.0309271 -2.9638239 -1.8592377 
93 1 -2.4191952 -3.2794612 -1.7617536999999999 
94 1 -2.4542759 -3.4596685000000003 -2.0733221 
95 1 -2.2952026 0.2168939 -2.3964482 
96 1 -2.1395503000000002 0.6437171 -2.4974552 
97 1 -1.9886806 -3.5378819 -2.8633091 
98 1 -1.7598258999999998 -3.1634002 -2.9910471000000003 
99 1 -1.6345839000000002 -3.5891075999999997 -3.1834786 
100 1 -1.0792696 0.3263763 -3.0911715 
101 1 -3.2260915 -1.8288841999999998 -0.4261961 
102 1 -3.2798698 -2.0174691 -0.8571103000000001 
103 1 -2.923875 -1.7561305999999999 -0.9108416 
104 1 -3.0097125 -2.1138594 -1.2528876 
105 1 -2.6009154 -2.4601748 -1.252984 
106 1 -3.104777 -2.6724788 -1.0888699000000002 
107 1 -2.7654471000000003 -2.8168072 -1.4468923999999999 
108 1 -3.2509604000000003 -2.89603 -1.5019642 
109 1 -3.0409192000000003 -2.9987500000000002 -1.939924 
110 1 -3.4480376999999995 -2.9235887000000003 -2.2641142 
111 1 -0.1707591 -0.23138920000000002 -1.6065517 
112 1 0.0617851 0.08893720000000001 -1.2734308 
113 1 0.31090049999999997 0.4618373 -1.5923968 
114 1 -3.1435132 0.1922884 -1.3851872 
115 1 -3.4138718 0.1911081 -0.9202866999999999 
116 1 -3.3797574 -3.2816682 -0.8892421 
117 1 -2.8737296 -3.0985872 -0.9510738999999999 
118 1 -2.7958033 -3.5587355 -0.8745196999999999 
119 1 -2.4318773 0.45959320000000004 -1.2172311 
120 1 -2.3809274 0.0470512 -0.9995184 
121 1 -1.0835427 -1.0933798 -3.0815114 
122 1 -1.0109948 -1.4025145 -2.8166379 
123 1 -1.4698090000000001 -1.3652011 -2.7116299 
124 1 -1.6649865 -1.7294996 -2.5685192 
125 1 -1.3452953 -1.9643823999999999 -2.2254128 
126 1 -1.6356507 -1.6108761999999999 -2.1266126 
127 1 -1.261816 -1.3586772 -1.7943777 
128 1 -1.4972771 -1.7078168999999999 -1.4918008 
129 1 -1.7145587 -1.3190859 -1.5823358 
130 1 -2.1963777 -1.7027888999999998 -1.7162312 
131 1 0.047830899999999996 -2.1903987000000003 -0.3784195 
132 1 -0.1203069 -2.6471777 -0.1962636 
133 1 -0.4509681 -2.7955370999999998 -0.42515790000000003 
134 1 -0.5463734 -2.949966 -0.060119599999999995 
135 1 -1.0208829 -2.6160971 0.097705 
136 1 -1.2042126 -2.7167421000000003 -0.2823403 
137 1 -1.0034022 -2.2518336000000003 -0.1812789 
138 1 -0.6723795 -2.2616886000000003 -0.5577591 
139 1 -0.740085 -1.8393771 -0.8048428 
140 1 -0.5810278 -1.7959064999999999 -0.3888442 
141 1 -0.04346 -1.9107127 -0.8269168 
142 1 0.1429335 -2.3143083 -1.1256836 
143 1 -0.1614703 -2.7089702 -1.0164486 
144 1 -0.5954284000000001 -2.4404928000000004 -1.0836969 
145 1 -0.4322629 -2.7404520000000003 -1.3604927 
146 1 -0.6540113 -2.3449912 -1.5817285 
147 1 -0.6540268 -2.6922246999999997 -1.8386578 
148 1 -0.6451644 -2.3126888 -2.1299526 
149 1 -0.5776521 -2.4295011 -2.5460248 
150 1 -0.6830896 -2.9569637 -2.5907736 
151 1 -2.8776839 -1.8124099 0.210355 
152 1 -3.3712932 -1.6929617000000001 0.0385324 
153 1 -3.4948422999999997 -1.8305951 0.5703490999999999 
154 1 -3.7068747 -1.9759906999999999 0.19668049999999998 
155 1 0.1021472 -2.3151545 0.256765 
156 1 0.4502198 -2.7210252 0.10104329999999999 
157 1 0.42950989999999994 -2.8946069999999997 0.41616739999999997 
158 1 -0.0045445 -2.7827344 -3.3818917999999996 
159 1 -0.0799189 -2.6605833 -2.8700508 
160 1 -0.1479576 -2.1617167999999998 -3.0661946 
161 1 -2.6954558 -2.1137833 -0.48333649999999995 
162 1 -2.9535092 -2.5264902 -0.2168161 
163 1 -3.2524898999999996 -2.5176637 -0.5764443 
164 1 -3.4470788 -2.7966907 -0.5440394000000001 
165 1 -3.1754371 -3.305255 -0.4555544 
166 1 -2.9215883000000002 -3.1463781 -0.0790751 
167 1 -2.5906963999999997 -3.1565981 -0.5010264 
168 1 -2.3313897 -2.8193959 -0.17721150000000002 
169 1 -2.1766099 -3.325321 -0.22409249999999997 
170 1 -2.2227143000000003 -3.2561717000000003 0.3034446 
171 1 -0.5994754 -3.0931547 -3.0050738 
172 1 -0.9967181999999999 -2.8416360000000003 -2.9670039 
173 1 -0.6908516 -2.7711755 -3.4410787999999997 
174 1 -1.2202895 -3.0290229 0.46506100000000006 
175 1 -1.0161436 -3.3668095 0.1658904 
176 1 -1.472348 -3.2332887 -0.1416364 
177 1 -1.3010018 0.22756389999999999 -0.2275561 
178 1 -1.6458057 0.3532732 0.169186 
179 1 -1.2485412 0.0216598 0.3435602 
180 1 -1.5399402 -0.4413524 0.37517239999999996 
181 1 -3.2248957 -2.6240668 -2.8809636999999997 
182 1 -3.1915672 -2.4808683 -2.5076736 
183 1 -2.8740918 -2.2343631999999998 -2.8575761 
184 1 -2.9288252 -1.8972107999999999 -2.9918328 
185 1 -2.8885846 -1.4571998000000002 -2.770015 
186 1 -3.2458336 -1.4788571 -3.0014712 
187 1 -3.2813159 -1.2942418 -2.4412312 
188 1 0.2918319 -1.7391828 -2.5080514999999997 
189 1 0.0493776 -1.4055351 -2.8160752 
190 1 -0.3676214 -1.1442391 -2.5819867 
191 1 -1.6564279 -1.2251016 0.10507040000000001 
192 1 -1.8803893999999999 -1.5641729 0.20561120000000002 
193 1 -2.1682645999999997 -1.7113343 -0.2102481 
194 1 -2.3763848 -1.3772669 0.022254799999999998 
195 1 -2.3001058 -1.313066 -0.491402 
196 1 -2.2464448 -0.887716 -0.13917 
197 1 -2.6722311999999997 -0.9906337000000001 -0.46145569999999997 
198 1 -2.3150473000000003 -0.588348 -0.6272656999999999 
199 1 -2.6494539 -0.8443824 -0.9837301999999999 
200 1 -2.7158988 -0.3998258 -1.2459149999999999 
201 1 -2.9813207 0.0842659 -3.2517899999999997 
202 1 -3.1741694 0.3432838 -2.9308313 
203 1 -2.8459595 0.5090889 -2.5937039 
204 1 -2.8350393 -0.0040763 -2.4500353 
205 1 -3.2073959000000003 0.2143793 -2.2343713000000003 
206 1 -3.4178355000000002 -0.25711849999999997 -2.4802743 
207 1 -3.4341003 -0.2174292 -2.0160996 
208 1 -3.267581 -0.6481405 -2.0659452000000003 
209 1 -3.0757374 -0.2852407 -1.7110724999999998 
210 1 -2.6288313 -0.3199155 -1.8973403000000002 
211 1 -1.6282272 -1.3492183 -3.2556807 
212 1 -1.2712112 -1.7563016 -3.4020170999999997 
213 1 -1.4841201 -2.1142171999999997 -3.0069269 
214 1 -1.5601610000000001 -2.2196821 -3.5852467 
215 1 -1.4792226 -2.5390115 -3.2510437000000003 
216 1 -1.8298344 -2.7105416 -3.5380938 
217 1 -2.054334 -2.3179762 -3.5915818 
218 1 -2.38189 -2.2760238999999998 -3.6325635 
219 1 -2.6370042000000002 -2.7138058999999997 -3.5352658 
220 1 -3.0509250999999997 -2.3813593 -3.4118037 
221 1 -1.1179786 -3.4297151 -2.4717654 
222 1 -0.8393335000000001 0.1442313 -2.1199784999999998 
223 1 -1.2883965 0.33711820000000003 -1.9138178 
224 1 -1.6220016000000002 0.0870242 -2.0963647 
225 1 -1.7780797 0.1312955 -1.6765344 
226 1 -2.050894 -0.11241490000000001 -1.7170379 
227 1 -1.8314411 -0.49301079999999997 -1.9806705 
228 1 -2.0755586999999998 -0.9418396 -1.771614 
229 1 -2.0987192 -0.8097054 -2.1902307 
230 1 -2.6514818 -0.7699962 -2.2556276 
231 1 0.1915805 -3.1589969 -3.0178253 
232 1 0.0937858 -3.6383906 -2.7822144 
233 1 -0.3466217 -3.5888914 -2.6670836 
234 1 -0.17287619999999998 0.09787019999999999 -2.3117209 
235 1 -0.028794300000000002 0.521976 -2.1246914 
236 1 -0.5016263999999999 -3.1673274 -2.1043955 
237 1 -0.47121139999999995 -3.5528395 -1.7428701 
238 1 -0.2461665 -3.3204634 -1.3763413 
239 1 -0.5442757 -3.4313491999999997 -1.0017334 
240 1 -0.4643466 -0.0109213 -1.2057741 
241 1 -3.3661427 -0.6689193999999999 -0.6389659 
242 1 -3.055016 -0.3030401 -0.7972156 
243 1 -3.2210788 -0.2620429 -0.3586414 
244 1 -2.7955590999999997 0.010688 -0.2923467 
245 1 -3.1218304 0.0073070999999999995 0.0159467 
246 1 -2.6688609 0.1849276 0.1592649 
247 1 -2.4927123 -0.2849162 0.1819155 
248 1 -2.2039231999999997 0.013839899999999999 -3.472152 
249 1 -2.0947917 -0.3965994 -3.5066003 
250 1 -1.8982099000000001 -0.5529139 -3.0270074 
251 1 -0.8625462 -2.4498743000000003 -3.1170493 
252 1 -0.8255286 -2.1627432 -3.3091111 
253 1 -0.5771639000000001 -2.0293003 -3.6032275 
254 1 -0.2487877 -1.6599958999999997 -3.4467905 
255 1 -0.6127875 -1.3847184000000001 -3.2839255 
256 1 -0.5394028 -1.4133264 0.0883282 
257 1 -0.9202641 -1.1619689 0.05543050000000001 
258 1 -1.1828405 -1.3068737000000001 -0.28890099999999996 
259 1 -0.7689163 -1.3034892 -0.6109812 
260 1 -0.6675452 -0.9256019 -0.6020152999999999 
261 1 -0.41694620000000004 0.1868215 -0.2503136 
262 1 0.0497624 0.5024393 -0.058627 
263 1 -0.26148289999999996 0.41515319999999994 0.2114201 
264 1 0.1559269 0.1778629 0.4226281 
265 1 -0.2926712 0.1687598 -3.2231402000000005 
266 1 -0.5262689 -0.1294859 -3.5069606 
267 1 -0.6842053 -0.22947769999999998 -3.0906548000000003 
268 1 -0.7600787999999999 -0.746369 -3.3645866 
269 1 -1.0970927 -0.6474612 -3.442617 
270 1 -1.3914969 -0.3661583 -3.0498578 
271 1 0.4361558 -1.3842257999999998 -0.8974211000000001 
272 1 0.0194556 -1.5184052 -0.5537346000000001 
273 1 0.3270461 -1.232849 -0.4648305 
274 1 -0.1858322 -1.1151356 -0.5490946 
275 1 -0.1629551 -0.6081276 -0.7490346 
276 1 0.3112946 -0.590398 -0.9871842 
277 1 -0.0634484 -0.6363799 -1.2078312 
278 1 0.26222449999999997 -0.7784788 -1.4795928999999999 
279 1 -0.1266975 -0.8466199 -1.6948149000000001 
280 1 0.2456868 -1.2130431 -1.8646062 
281 1 -0.6678593 -0.45307449999999994 -0.5170299 
282 1 -0.4360073 -0.7086985 -0.05314529999999999 
283 1 -0.08986809999999999 -0.5394015999999999 -0.10571520000000001 
284 1 0.012759699999999999 -1.014445 -0.0268792 
285 1 0.28371080000000004 -0.7037036 0.1144221 
286 1 -3.1102476 -0.7160992 -0.061807999999999995 
287 1 -3.0091759 -1.2363593 -0.0076632 
288 1 -2.9047606999999998 -1.0793915 0.37873670000000004 
289 1 -3.0885200999999998 -0.6746155 -3.4186071 
290 1 -3.305701 -0.8979761999999999 -2.9142789000000002 
ITEM: TIMESTEP
200
ITEM: NUMBER OF ATOMS
290
ITEM: BOX BOUNDS pp pp pp
0 3.8622075000000002
0 3.8622075000000002
0 3.8622075000000002
ITEM: ATOMS id type x y z
1 1 -2.2170693 -2.0027922 -3.0591277000000003 
2 1 -2.1196794 -2.2112375 -2.7647657 
3 1 -2.2083853 -2.6061889999999996 -2.9683069 
4 1 -1.9211143 -2.6162526 -2.508423 
5 1 -1.6436095000000002 -3.0396994 -2.5088555 
6 1 -1.3377822 -2.5399944000000003 -2.4746835999999997 
7 1 -1.2506071 -2.8483114 -2.248531 
8 1 -1.5594704 -2.8648420999999997 -1.8095944 
9 1 -1.2446676 -2.3807802 -1.7591867 
10 1 -1.1855495 -2.666108 -1.4513194 
11 1 -0.4056539 -0.0502488 -0.6827057 
12 1 -0.9227903 -0.0327453 -0.5936317 
13 1 -0.9396602 0.5428174 -0.48451849999999996 
14 1 -1.0602368 0.47720609999999997 -1.026914 
15 1 -1.5388016 0.3582655 -0.7235932 
16 1 -1.6342793 -3.1306015 -0.7283393 
17 1 -1.4585428 -3.0860595 -1.1910997 
18 1 -1.0255505 -2.9006972 -0.9396355 
19 1 -1.3763904 -2.5626938 -0.8137797000000001 
20 1 -1.1964784 -2.1694703 -1.174 
21 1 -0.36414599999999997 -1.2353436 -1.2613492000000002 
22 1 -0.697647 -1.5923022 -1.3650856 
23 1 -0.567101 -1.2715308 -1.7513414999999999 
24 1 -0.8239289 -1.7226935 -1.8381112000000002 
25 1 -0.332289 -1.8639344000000002 -1.7047027 
26 1 -0.222026 -1.6518921 -2.1622656 
27 1 -0.1582631 -2.0640291 -2.5214042 
28 1 -0.46599130000000005 -1.7279281000000002 -2.6167397 
29 1 -0.9581204 -1.9491228 -2.609968 
30 1 -0.8923997 -1.5113895 -2.1926411999999997 
31 1 -2.6991434 -2.8644922 -2.7415130999999997 
32 1 -2.6595842000000003 -2.658943 -2.2717469 
33 1 -2.5490783 -2.2850270999999998 -2.2929041999999997 
34 1 -2.1033839 -2.1485456 -2.1723195 
35 1 -2.4330125 -2.2595414000000003 -1.8410802 
36 1 -1.9504905000000001 -2.1930924999999997 -1.7152813999999998 
37 1 -2.256208 -2.099931 -1.3701802 
38 1 -1.9049872 -2.2134133 -1.1098152000000001 
39 1 -2.3036547 -2.0588419 -0.9161640999999999 
40 1 -2.0380488 -2.3430993 -0.5076916 
41 1 -2.9681688 -1.7450941 -2.253885 
42 1 -2.5256399 -1.6781213000000001 -2.4801129 
43 1 -2.3773182999999998 -1.3930891 -2.1419913999999998 
44 1 -2.1909513 -1.2655530000000002 -2.6042885 
45 1 -2.2866079 -1.0452267000000002 -2.8637539 
46 1 -2.704056 -0.9210100999999999 -2.9005935000000003 
47 1 -2.4197977 -0.6949183999999999 -3.1568684 
48 1 -2.8852962 -0.5016442 -2.9518499 
49 1 -2.4574473 -0.23176770000000002 -2.8037688 
50 1 -2.5040766999999997 0.2756335 -3.0269711999999998 
51 1 0.0755806 -2.8379382 -1.7710947999999997 
52 1 0.1408789 -2.358569 -2.0087028 
53 1 0.48420399999999997 -2.2533068 -1.7662147000000001 
54 1 0.2819882 -1.8435763 -1.8480720000000002 
55 1 0.4936046 -1.622817 -1.3897969 
56 1 -3.00975 -1.7412987999999998 -1.702265 
57 1 -2.9515295999999998 -1.3176223 -1.8899025999999999 